ITEM: TIMESTEP 
0
ITEM: NUMBER OF ATOMS
1
ITEM: BOX BOUNDS pp pp pp
0	20
0	20
0	20
ITEM: ATOMS id x y z vx vy vz
0 1 2.3 1 0.56957 0.277865 0.639705 
ITEM: TIMESTEP 
1
ITEM: NUMBER OF ATOMS
1
ITEM: BOX BOUNDS pp pp pp
0	20
0	20
0	20
ITEM: ATOMS id x y z vx vy vz
0 1 3.6 1 0.56957 0.277865 0.639705 
ITEM: TIMESTEP 
2
ITEM: NUMBER OF ATOMS
1
ITEM: BOX BOUNDS pp pp pp
0	20
0	20
0	20
ITEM: ATOMS id x y z vx vy vz
0 1 4.9 1 0.56957 0.277865 0.639705 
ITEM: TIMESTEP 
3
ITEM: NUMBER OF ATOMS
1
ITEM: BOX BOUNDS pp pp pp
0	20
0	20
0	20
ITEM: ATOMS id x y z vx vy vz
0 1 6.2 1 0.56957 0.277865 0.639705 
ITEM: TIMESTEP 
4
ITEM: NUMBER OF ATOMS
1
ITEM: BOX BOUNDS pp pp pp
0	20
0	20
0	20
ITEM: ATOMS id x y z vx vy vz
0 1 7.5 1 0.56957 0.277865 0.639705 
ITEM: TIMESTEP 
5
ITEM: NUMBER OF ATOMS
1
ITEM: BOX BOUNDS pp pp pp
0	20
0	20
0	20
ITEM: ATOMS id x y z vx vy vz
0 1 8.8 1 0.56957 0.277865 0.639705 
ITEM: TIMESTEP 
6
ITEM: NUMBER OF ATOMS
1
ITEM: BOX BOUNDS pp pp pp
0	20
0	20
0	20
ITEM: ATOMS id x y z vx vy vz
0 1 10.1 1 0.56957 0.277865 0.639705 
ITEM: TIMESTEP 
7
ITEM: NUMBER OF ATOMS
1
ITEM: BOX BOUNDS pp pp pp
0	20
0	20
0	20
ITEM: ATOMS id x y z vx vy vz
0 1 11.4 1 0.56957 0.277865 0.639705 
ITEM: TIMESTEP 
8
ITEM: NUMBER OF ATOMS
1
ITEM: BOX BOUNDS pp pp pp
0	20
0	20
0	20
ITEM: ATOMS id x y z vx vy vz
0 1 12.7 1 0.56957 0.277865 0.639705 
ITEM: TIMESTEP 
9
ITEM: NUMBER OF ATOMS
1
ITEM: BOX BOUNDS pp pp pp
0	20
0	20
0	20
ITEM: ATOMS id x y z vx vy vz
0 1 14 1 0.56957 0.277865 0.639705 
